                                        *****************
                                        * O   R   C   A *
                                        *****************

                                            #,                                       
                                            ###                                      
                                            ####                                     
                                            #####                                    
                                            ######                                   
                                           ########,                                 
                                     ,,################,,,,,                         
                               ,,#################################,,                 
                          ,,##########################################,,             
                       ,#########################################, ''#####,          
                    ,#############################################,,   '####,        
                  ,##################################################,,,,####,       
                ,###########''''           ''''###############################       
              ,#####''   ,,,,##########,,,,          '''####'''          '####       
            ,##' ,,,,###########################,,,                        '##       
           ' ,,###''''                  '''############,,,                           
         ,,##''                                '''############,,,,        ,,,,,,###''
      ,#''                                            '''#######################'''  
     '                                                          ''''####''''         
             ,#######,   #######,   ,#######,      ##                                
            ,#'     '#,  ##    ##  ,#'     '#,    #''#        ######   ,####,        
            ##       ##  ##   ,#'  ##            #'  '#       #        #'  '#        
            ##       ##  #######   ##           ,######,      #####,   #    #        
            '#,     ,#'  ##    ##  '#,     ,#' ,#      #,         ##   #,  ,#        
             '#######'   ##     ##  '#######'  #'      '#     #####' # '####'        



                  #######################################################
                  #                        -***-                        #
                  #          Department of theory and spectroscopy      #
                  #    Directorship and core code : Frank Neese         #
                  #        Max Planck Institute fuer Kohlenforschung    #
                  #                Kaiser Wilhelm Platz 1               #
                  #                 D-45470 Muelheim/Ruhr               #
                  #                      Germany                        #
                  #                                                     #
                  #                  All rights reserved                #
                  #                        -***-                        #
                  #######################################################


                         Program Version 5.0  -   STABLE   -
                                (SVN: $Rev: 19537$)
                ($Date: 2021-06-28 10:06:34 +0200 (Mo, 28 Jun 2021) $)

                  !                     WARNING:                         !
                  !         This is a   IN-HOUSE  version                !

                         (BUILD: $Di 29. Jun 02:00:22 CEST 2021$)


 With contributions from (in alphabetic order):
   Daniel Aravena         : Magnetic Suceptibility
   Michael Atanasov       : Ab Initio Ligand Field Theory (pilot matlab implementation)
   Alexander A. Auer      : GIAO ZORA, VPT2 properties, NMR spectrum
   Ute Becker             : Parallelization
   Giovanni Bistoni       : ED, misc. LED, open-shell LED, HFLD
   Martin Brehm           : Molecular dynamics
   Dmytro Bykov           : SCF Hessian
   Vijay G. Chilkuri      : MRCI spin determinant printing, contributions to CSF-ICE
   Dipayan Datta          : RHF DLPNO-CCSD density
   Achintya Kumar Dutta   : EOM-CC, STEOM-CC
   Dmitry Ganyushin       : Spin-Orbit,Spin-Spin,Magnetic field MRCI
   Miquel Garcia          : C-PCM Hessian, Gaussian charge scheme
   Yang Guo               : DLPNO-NEVPT2, F12-NEVPT2, CIM, IAO-localization
   Andreas Hansen         : Spin unrestricted coupled pair/coupled cluster methods
   Benjamin Helmich-Paris : MC-RPA, TRAH-SCF, COSX integrals
   Lee Huntington         : MR-EOM, pCC
   Robert Izsak           : Overlap fitted RIJCOSX, COSX-SCS-MP3, EOM
   Marcus Kettner         : VPT2
   Christian Kollmar      : KDIIS, OOCD, Brueckner-CCSD(T), CCSD density, CASPT2, CASPT2-K
   Simone Kossmann        : Meta GGA functionals, TD-DFT gradient, OOMP2, MP2 Hessian
   Martin Krupicka        : Initial AUTO-CI
   Lucas Lang             : DCDCAS
   Marvin Lechner         : AUTO-CI (C++ implementation), FIC-MRCC
   Dagmar Lenk            : GEPOL surface, SMD
   Dimitrios Liakos       : Extrapolation schemes; Compound Job, initial MDCI parallelization
   Dimitrios Manganas     : Further ROCIS development; embedding schemes
   Dimitrios Pantazis     : SARC Basis sets
   Anastasios Papadopoulos: AUTO-CI, single reference methods and gradients
   Taras Petrenko         : DFT Hessian,TD-DFT gradient, ASA, ECA, R-Raman, ABS, FL, XAS/XES, NRVS
   Peter Pinski           : DLPNO-MP2, DLPNO-MP2 Gradient
   Christoph Reimann      : Effective Core Potentials
   Marius Retegan         : Local ZFS, SOC
   Christoph Riplinger    : Optimizer, TS searches, QM/MM, DLPNO-CCSD(T), (RO)-DLPNO pert. Triples
   Tobias Risthaus        : Range-separated hybrids, TD-DFT gradient, RPA, STAB
   Michael Roemelt        : Original ROCIS implementation
   Masaaki Saitow         : Open-shell DLPNO-CCSD energy and density
   Barbara Sandhoefer     : DKH picture change effects
   Avijit Sen             : IP-ROCIS
   Kantharuban Sivalingam : CASSCF convergence, NEVPT2, FIC-MRCI
   Bernardo de Souza      : ESD, SOC TD-DFT
   Georgi Stoychev        : AutoAux, RI-MP2 NMR
   Willem Van den Heuvel  : Paramagnetic NMR
   Boris Wezisla          : Elementary symmetry handling
   Frank Wennmohs         : Technical directorship


 We gratefully acknowledge several colleagues who have allowed us to
 interface, adapt or use parts of their codes:
   Stefan Grimme, W. Hujo, H. Kruse, P. Pracht,  : VdW corrections, initial TS optimization,
                  C. Bannwarth, S. Ehlert          DFT functionals, gCP, sTDA/sTD-DF
   Ed Valeev, F. Pavosevic, A. Kumar             : LibInt (2-el integral package), F12 methods
   Garnet Chan, S. Sharma, J. Yang, R. Olivares  : DMRG
   Ulf Ekstrom                                   : XCFun DFT Library
   Mihaly Kallay                                 : mrcc  (arbitrary order and MRCC methods)
   Jiri Pittner, Ondrej Demel                    : Mk-CCSD
   Frank Weinhold                                : gennbo (NPA and NBO analysis)
   Christopher J. Cramer and Donald G. Truhlar   : smd solvation model
   Lars Goerigk                                  : TD-DFT with DH, B97 family of functionals
   V. Asgeirsson, H. Jonsson                     : NEB implementation
   FAccTs GmbH                                   : IRC, NEB, NEB-TS, DLPNO-Multilevel, CI-OPT
                                                   MM, QMMM, 2- and 3-layer-ONIOM, Crystal-QMMM,
                                                   LR-CPCM, SF, NACMEs, symmetry and pop. for TD-DFT,
                                                   nearIR, NL-DFT gradient (VV10), updates on ESD,
                                                   ML-optimized integration grids
   S Lehtola, MJT Oliveira, MAL Marques          : LibXC Library
   Liviu Ungur et al                             : ANISO software


 Your calculation uses the libint2 library for the computation of 2-el integrals
 For citations please refer to: http://libint.valeyev.net

 Your ORCA version has been built with support for libXC version: 5.1.0
 For citations please refer to: https://tddft.org/programs/libxc/

 This ORCA versions uses:
   CBLAS   interface :  Fast vector & matrix operations
   LAPACKE interface :  Fast linear algebra routines
   SCALAPACK package :  Parallel linear algebra routines
   Shared memory     :  Shared parallel matrices




***************************************
The coordinates will be read from file: frag2.xyz
***************************************


================================================================================

----- Orbital basis set information -----
Your calculation utilizes the basis: def2-TZVP
   F. Weigend and R. Ahlrichs, Phys. Chem. Chem. Phys. 7, 3297 (2005).

----- AuxJ basis set information -----
Your calculation utilizes the auxiliary basis: def2/J
   F. Weigend, Phys. Chem. Chem. Phys. 8, 1057 (2006).

----- AuxC basis set information -----
Your calculation utilizes the auxiliary basis: def2-TZVP/C
  H-La, Hf-Rn : A. Hellweg, C. Hattig, S. Hofener and W. Klopper, Theor. Chem. Acc. 117, 587 (2007).
        Ce-Lu : J. Chmela and M. E. Harding, Mol. Phys. (2018).

================================================================================
                                        WARNINGS
                       Please study these warnings very carefully!
================================================================================


WARNING: Post HF methods need fully converged wavefunctions
  ===> : Setting SCFConvForced true
         You can overwrite this default with %scf ConvForced false 


WARNING: MDCI localization with Augmented Hessian Foster-Boys
  ===> : Switching off randomization!

INFO   : the flag for use of the SHARK integral package has been found!

================================================================================
                                       INPUT FILE
================================================================================
NAME = frag2.inp
|  1> !DLPNO-CCSD(T) def2-TZVP def2/J TIGHTSCF def2-TZVP/C RIJCOSX TIGHTPNO NOAUTOSTART
|  2> %pal nprocs 8 end
|  3> 
|  4> *xyzfile 0 1 frag2.xyz
|  5> 
|  6>                          ****END OF INPUT****
================================================================================

                       ****************************
                       * Single Point Calculation *
                       ****************************

---------------------------------
CARTESIAN COORDINATES (ANGSTROEM)
---------------------------------
  C     -0.692974   -1.399637   -1.472135
  C     -0.925332   -1.767132    0.784138
  C      0.463548   -1.299945    0.546978
  C      0.604568   -1.073813   -0.828509
  O     -1.470229   -2.145322    1.790441
  O     -1.607710   -1.690420   -0.443690
  O     -1.014010   -1.426025   -2.633444
  H      1.531666   -1.091034   -1.414287
  H      1.255880   -1.534356    1.268227

----------------------------
CARTESIAN COORDINATES (A.U.)
----------------------------
  NO LB      ZA    FRAG     MASS         X           Y           Z
   0 C     6.0000    0    12.011   -1.309532   -2.644930   -2.781932
   1 C     6.0000    0    12.011   -1.748625   -3.339396    1.481807
   2 C     6.0000    0    12.011    0.875979   -2.456540    1.033640
   3 C     6.0000    0    12.011    1.142468   -2.029212   -1.565656
   4 O     8.0000    0    15.999   -2.778330   -4.054071    3.383442
   5 O     8.0000    0    15.999   -3.038132   -3.194431   -0.838453
   6 O     8.0000    0    15.999   -1.916201   -2.694797   -4.976487
   7 H     1.0000    0     1.008    2.894429   -2.061755   -2.672615
   8 H     1.0000    0     1.008    2.373269   -2.899512    2.396601

--------------------------------
INTERNAL COORDINATES (ANGSTROEM)
--------------------------------
 C      0   0   0     0.000000000000     0.00000000     0.00000000
 C      1   0   0     2.297784353192     0.00000000     0.00000000
 C      2   1   0     1.484418333920    72.43244558     0.00000000
 C      3   2   1     1.401067181225   107.56696590     0.09321017
 O      2   1   3     1.205231844349   156.31466285   188.51144179
 O      1   2   3     1.406767534401    35.24667717   188.77163635
 O      1   2   3     1.205154730071   156.31531951   171.32325221
 H      4   3   2     1.096787296375   127.36420968   204.75457726
 H      3   2   1     1.096784716203   120.23782710   202.87912438

---------------------------
INTERNAL COORDINATES (A.U.)
---------------------------
 C      0   0   0     0.000000000000     0.00000000     0.00000000
 C      1   0   0     4.342183142342     0.00000000     0.00000000
 C      2   1   0     2.805144119280    72.43244558     0.00000000
 C      3   2   1     2.647633267740   107.56696590     0.09321017
 O      2   1   3     2.277558113701   156.31466285   188.51144179
 O      1   2   3     2.658405374110    35.24667717   188.77163635
 O      1   2   3     2.277412388833   156.31531951   171.32325221
 H      4   3   2     2.072627617313   127.36420968   204.75457726
 H      3   2   1     2.072622741495   120.23782710   202.87912438

---------------------
BASIS SET INFORMATION
---------------------
There are 3 groups of distinct atoms

 Group   1 Type C   : 11s6p2d1f contracted to 5s3p2d1f pattern {62111/411/11/1}
 Group   2 Type O   : 11s6p2d1f contracted to 5s3p2d1f pattern {62111/411/11/1}
 Group   3 Type H   : 5s1p contracted to 3s1p pattern {311/1}

Atom   0C    basis set group =>   1
Atom   1C    basis set group =>   1
Atom   2C    basis set group =>   1
Atom   3C    basis set group =>   1
Atom   4O    basis set group =>   2
Atom   5O    basis set group =>   2
Atom   6O    basis set group =>   2
Atom   7H    basis set group =>   3
Atom   8H    basis set group =>   3
---------------------------------
AUXILIARY/J BASIS SET INFORMATION
---------------------------------
There are 3 groups of distinct atoms

 Group   1 Type C   : 12s5p4d2f1g contracted to 6s4p3d1f1g pattern {711111/2111/211/2/1}
 Group   2 Type O   : 12s5p4d2f1g contracted to 6s4p3d1f1g pattern {711111/2111/211/2/1}
 Group   3 Type H   : 5s2p1d contracted to 3s1p1d pattern {311/2/1}

Atom   0C    basis set group =>   1
Atom   1C    basis set group =>   1
Atom   2C    basis set group =>   1
Atom   3C    basis set group =>   1
Atom   4O    basis set group =>   2
Atom   5O    basis set group =>   2
Atom   6O    basis set group =>   2
Atom   7H    basis set group =>   3
Atom   8H    basis set group =>   3
---------------------------------
AUXILIARY/C BASIS SET INFORMATION
---------------------------------
There are 3 groups of distinct atoms

 Group   1 Type C   : 8s6p5d3f1g contracted to 8s6p4d3f1g pattern {11111111/111111/2111/111/1}
 Group   2 Type O   : 8s6p5d3f1g contracted to 8s6p4d3f1g pattern {11111111/111111/2111/111/1}
 Group   3 Type H   : 4s3p2d contracted to 4s2p1d pattern {1111/21/2}

Atom   0C    basis set group =>   1
Atom   1C    basis set group =>   1
Atom   2C    basis set group =>   1
Atom   3C    basis set group =>   1
Atom   4O    basis set group =>   2
Atom   5O    basis set group =>   2
Atom   6O    basis set group =>   2
Atom   7H    basis set group =>   3
Atom   8H    basis set group =>   3


           ************************************************************
           *        Program running with 8 parallel MPI-processes     *
           *              working on a common directory               *
           ************************************************************
------------------------------------------------------------------------------
                           ORCA GTO INTEGRAL CALCULATION
                           -- RI-GTO INTEGRALS CHOSEN --
------------------------------------------------------------------------------
------------------------------------------------------------------------------
                   ___                                                        
                  /   \      - P O W E R E D   B Y -                         
                 /     \                                                     
                 |  |  |   _    _      __       _____    __    __             
                 |  |  |  | |  | |    /  \     |  _  \  |  |  /  |          
                  \  \/   | |  | |   /    \    | | | |  |  | /  /          
                 / \  \   | |__| |  /  /\  \   | |_| |  |  |/  /          
                |  |  |   |  __  | /  /__\  \  |    /   |      \           
                |  |  |   | |  | | |   __   |  |    \   |  |\   \          
                \     /   | |  | | |  |  |  |  | |\  \  |  | \   \       
                 \___/    |_|  |_| |__|  |__|  |_| \__\ |__|  \__/        
                                                                              
                      - O R C A' S   B I G   F R I E N D -                    
                                      &                                       
                       - I N T E G R A L  F E E D E R -                       
                                                                              
 v1 FN, 2020, v2 2021                                                         
------------------------------------------------------------------------------


Reading SHARK input file frag2.SHARKINP.tmp ... ok
----------------------
SHARK INTEGRAL PACKAGE
----------------------

Number of atoms                             ...      9
Number of basis functions                   ...    229
Number of shells                            ...     85
Maximum angular momentum                    ...      3
Integral batch strategy                     ... SHARK/LIBINT Hybrid
RI-J (if used) integral strategy            ... SPLIT-RIJ (Revised 2003 algorithm where possible)
Printlevel                                  ...      1
Contraction scheme used                     ... SEGMENTED contraction
Coulomb Range Separation                    ... NOT USED
Exchange Range Separation                   ... NOT USED
Finite Nucleus Model                        ... NOT USED
Auxiliary Coulomb fitting basis             ... AVAILABLE
   # of basis functions in Aux-J            ...    365
   # of shells in Aux-J                     ...    115
   Maximum angular momentum in Aux-J        ...      4
Auxiliary J/K fitting basis                 ... NOT available
Auxiliary Correlation fitting basis         ... AVAILABLE
   # of basis functions in Aux-C            ...    562
   # of shells in Aux-C                     ...    168
   Maximum angular momentum in Aux-C        ...      4
Auxiliary 'external' fitting basis          ... NOT available
Integral threshold                          ...     2.500000e-11
Primitive cut-off                           ...     2.500000e-12
Primitive pair pre-selection threshold      ...     2.500000e-12

Calculating pre-screening integrals         ... done (  0.1 sec) Dimension = 85
Organizing shell pair data                  ... done (  0.0 sec)
Shell pair information
Total number of shell pairs                 ...      3655
Shell pairs after pre-screening             ...      3439
Total number of primitive shell pairs       ...     11788
Primitive shell pairs kept                  ...      8481
          la=0 lb=0:    764 shell pairs
          la=1 lb=0:    903 shell pairs
          la=1 lb=1:    273 shell pairs
          la=2 lb=0:    534 shell pairs
          la=2 lb=1:    316 shell pairs
          la=2 lb=2:    102 shell pairs
          la=3 lb=0:    267 shell pairs
          la=3 lb=1:    157 shell pairs
          la=3 lb=2:     96 shell pairs
          la=3 lb=3:     27 shell pairs

Calculating one electron integrals          ... done (  0.0 sec)
Calculating RI/J V-Matrix + Cholesky decomp.... done (  0.1 sec)
Calculating RI/C V-Matrix + Cholesky decomp.... done (  0.1 sec)
Calculating Nuclear repulsion               ... done (  0.0 sec) ENN=    272.081587127699 Eh

SHARK setup successfully completed in   0.5 seconds

Maximum memory used throughout the entire GTOINT-calculation: 14.0 MB


           ************************************************************
           *        Program running with 8 parallel MPI-processes     *
           *              working on a common directory               *
           ************************************************************
-------------------------------------------------------------------------------
                                 ORCA SCF
-------------------------------------------------------------------------------

------------
SCF SETTINGS
------------
Hamiltonian:
 Ab initio Hamiltonian  Method          .... Hartree-Fock(GTOs)
 RI-approximation to the Coulomb term is turned on
   Number of AuxJ basis functions       .... 365
   RIJ-COSX (HFX calculated with COS-X)).... on


General Settings:
 Integral files         IntName         .... frag2
 Hartree-Fock type      HFTyp           .... RHF
 Total Charge           Charge          ....    0
 Multiplicity           Mult            ....    1
 Number of Electrons    NEL             ....   50
 Basis Dimension        Dim             ....  229
 Nuclear Repulsion      ENuc            ....    272.0815871277 Eh

Convergence Acceleration:
 DIIS                   CNVDIIS         .... on
   Start iteration      DIISMaxIt       ....    12
   Startup error        DIISStart       ....  0.200000
   # of expansion vecs  DIISMaxEq       ....     5
   Bias factor          DIISBfac        ....   1.050
   Max. coefficient     DIISMaxC        ....  10.000
 Trust-Rad. Augm. Hess. CNVTRAH         .... auto
   Auto Start mean grad. ratio tolernc. ....  1.125000
   Auto Start start iteration           ....    20
   Auto Start num. interpolation iter.  ....    10
   Max. Number of Micro iterations      ....    16
   Max. Number of Macro iterations      .... Maxiter - #DIIS iter
   Number of Davidson start vectors     ....     2
   Converg. threshold I  (grad. norm)   ....   1.000e-05
   Converg. threshold II (energy diff.) ....   1.000e-08
   Grad. Scal. Fac. for Micro threshold ....   0.100
   Minimum threshold for Micro iter.    ....   0.010
   NR start threshold (gradient norm)   ....   0.001
   Initial trust radius                 ....   0.400
   Minimum AH scaling param. (alpha)    ....   1.000
   Maximum AH scaling param. (alpha)    .... 1000.000
   Orbital update algorithm             .... Taylor
   White noise on init. David. guess    .... on
   Maximum white noise                  ....   0.010
   Quad. conv. algorithm                .... NR
 SOSCF                  CNVSOSCF        .... on
   Start iteration      SOSCFMaxIt      ....   150
   Startup grad/error   SOSCFStart      ....  0.003300
 Level Shifting         CNVShift        .... on
   Level shift para.    LevelShift      ....    0.2500
   Turn off err/grad.   ShiftErr        ....    0.0010
 Zerner damping         CNVZerner       .... off
 Static damping         CNVDamp         .... on
   Fraction old density DampFac         ....    0.7000
   Max. Damping (<1)    DampMax         ....    0.9800
   Min. Damping (>=0)   DampMin         ....    0.0000
   Turn off err/grad.   DampErr         ....    0.1000
 Fernandez-Rico         CNVRico         .... off

SCF Procedure:
 Maximum # iterations   MaxIter         ....   125
 SCF integral mode      SCFMode         .... Direct
   Integral package                     .... SHARK and LIBINT hybrid scheme
 Reset frequency        DirectResetFreq ....    20
 Integral Threshold     Thresh          ....  2.500e-11 Eh
 Primitive CutOff       TCut            ....  2.500e-12 Eh

Convergence Tolerance:
 Convergence Check Mode ConvCheckMode   .... Total+1el-Energy
 Convergence forced     ConvForced      .... 1
 Energy Change          TolE            ....  1.000e-08 Eh
 1-El. energy change                    ....  1.000e-05 Eh
 Orbital Gradient       TolG            ....  1.000e-05
 Orbital Rotation angle TolX            ....  1.000e-05
 DIIS Error             TolErr          ....  5.000e-07


Diagonalization of the overlap matrix:
Smallest eigenvalue                        ... 1.263e-04
Time for diagonalization                   ...    0.011 sec
Threshold for overlap eigenvalues          ... 1.000e-08
Number of eigenvalues below threshold      ... 0
Time for construction of square roots      ...    0.047 sec
Total time needed                          ...    0.058 sec

Time for model grid setup =    0.044 sec

------------------------------
INITIAL GUESS: MODEL POTENTIAL
------------------------------
Loading Hartree-Fock densities                     ... done
Calculating cut-offs                               ... done
Initializing the effective Hamiltonian             ... done
Setting up the integral package (SHARK)            ... done
Starting the Coulomb interaction                   ... done (   0.1 sec)
Reading the grid                                   ... done
Mapping shells                                     ... done
Starting the XC term evaluation                    ... done (   0.0 sec)
Transforming the Hamiltonian                       ... done (   0.0 sec)
Diagonalizing the Hamiltonian                      ... done (   0.0 sec)
Back transforming the eigenvectors                 ... done (   0.0 sec)
Now organizing SCF variables                       ... done
                      ------------------
                      INITIAL GUESS DONE (   0.2 sec)
                      ------------------
--------------------
COSX GRID GENERATION
--------------------

GRIDX 1
-------
General Integration Accuracy     IntAcc      ... 3.816
Radial Grid Type                 RadialGrid  ... OptM3 with GC (2021)
Angular Grid (max. ang.)         AngularGrid ... 1 (Lebedev-50)
Angular grid pruning method      GridPruning ... 4 (adaptive)
Weight generation scheme         WeightScheme... Becke
Basis function cutoff            BFCut       ... 1.0000e-11
Integration weight cutoff        WCut        ... 1.0000e-14
Angular grids for H and He will be reduced by one unit
Partially contracted basis set               ... on
Rotationally invariant grid construction     ... off

Total number of grid points                  ...     6214
Total number of batches                      ...      101
Average number of points per batch           ...       61
Average number of grid points per atom       ...      690
UseSFitting                                  ... on

GRIDX 2
-------
General Integration Accuracy     IntAcc      ... 4.020
Radial Grid Type                 RadialGrid  ... OptM3 with GC (2021)
Angular Grid (max. ang.)         AngularGrid ... 2 (Lebedev-110)
Angular grid pruning method      GridPruning ... 4 (adaptive)
Weight generation scheme         WeightScheme... Becke
Basis function cutoff            BFCut       ... 1.0000e-11
Integration weight cutoff        WCut        ... 1.0000e-14
Angular grids for H and He will be reduced by one unit
Partially contracted basis set               ... on
Rotationally invariant grid construction     ... off

Total number of grid points                  ...    14416
Total number of batches                      ...      232
Average number of points per batch           ...       62
Average number of grid points per atom       ...     1602
UseSFitting                                  ... on

GRIDX 3
-------
General Integration Accuracy     IntAcc      ... 4.338
Radial Grid Type                 RadialGrid  ... OptM3 with GC (2021)
Angular Grid (max. ang.)         AngularGrid ... 3 (Lebedev-194)
Angular grid pruning method      GridPruning ... 4 (adaptive)
Weight generation scheme         WeightScheme... Becke
Basis function cutoff            BFCut       ... 1.0000e-11
Integration weight cutoff        WCut        ... 1.0000e-14
Angular grids for H and He will be reduced by one unit
Partially contracted basis set               ... on
Rotationally invariant grid construction     ... off

Total number of grid points                  ...    31956
Total number of batches                      ...      504
Average number of points per batch           ...       63
Average number of grid points per atom       ...     3551
UseSFitting                                  ... on

Time for X-Grid setup             =    0.338 sec

--------------
SCF ITERATIONS
--------------
ITER       Energy         Delta-E        Max-DP      RMS-DP      [F,P]     Damp
               ***  Starting incremental Fock matrix formation  ***
  0   -377.0919245914   0.000000000000 0.04157557  0.00089003  0.2977959 0.7000
  1   -377.1858987412  -0.093974149829 0.02875374  0.00066809  0.2193225 0.7000
                               ***Turning on DIIS***
  2   -377.2392398109  -0.053341069723 0.01670435  0.00041805  0.1629601 0.7000
  3   -377.6998386380  -0.460598827077 0.00838382  0.00026356  0.1203846 0.7000
  4   -377.6991558643   0.000682773761 0.02377398  0.00066747  0.0847364 0.0000
  5   -377.3818126128   0.317343251488 0.00445855  0.00011531  0.0077115 0.0000
                      *** Initiating the SOSCF procedure ***
                           *** Shutting down DIIS ***
                      *** Re-Reading the Fockian *** 
                      *** Removing any level shift *** 
ITER      Energy       Delta-E        Grad      Rot      Max-DP    RMS-DP
  6   -377.35526410   0.0265485106  0.001631  0.001631  0.002764  0.000063
               *** Restarting incremental Fock matrix formation ***
  7   -377.35518734   0.0000767639  0.000937  0.001394  0.002703  0.000051
  8   -377.35521782  -0.0000304771  0.000521  0.001281  0.002813  0.000054
  9   -377.35522757  -0.0000097504  0.000377  0.000453  0.000868  0.000016
 10   -377.35522938  -0.0000018182  0.000050  0.000076  0.000137  0.000003
 11   -377.35522950  -0.0000001112  0.000020  0.000079  0.000032  0.000001
 12   -377.35522952  -0.0000000214  0.000007  0.000021  0.000017  0.000000
 13   -377.35522951   0.0000000017  0.000003  0.000007  0.000007  0.000000
                 **** Energy Check signals convergence ****
              ***Rediagonalizing the Fockian in SOSCF/NRSCF***

               *****************************************************
               *                     SUCCESS                       *
               *           SCF CONVERGED AFTER  14 CYCLES          *
               *****************************************************

Old exchange energy                            =    -46.080831783 Eh
New exchange energy                            =    -46.080733831 Eh
Exchange energy change after final integration =      0.000097951 Eh
Total energy after final integration           =   -377.355131562 Eh
Final COS-X integration done in                =     1.570 sec

----------------
TOTAL SCF ENERGY
----------------

Total Energy       :         -377.35513156 Eh          -10268.35516 eV

Components:
Nuclear Repulsion  :          272.08158713 Eh            7403.71638 eV
Electronic Energy  :         -649.43671869 Eh          -17672.07155 eV
One Electron Energy:        -1054.84382374 Eh          -28703.75971 eV
Two Electron Energy:          405.40710505 Eh           11031.68817 eV
Max COSX asymmetry :            0.00000407 Eh               0.00011 eV

Virial components:
Potential Energy   :         -753.73762294 Eh          -20510.24344 eV
Kinetic Energy     :          376.38249138 Eh           10241.88828 eV
Virial Ratio       :            2.00258418


---------------
SCF CONVERGENCE
---------------

  Last Energy change         ...    1.3965e-09  Tolerance :   1.0000e-08
  Last MAX-Density change    ...    1.3323e-15  Tolerance :   1.0000e-07
  Last RMS-Density change    ...    2.1653e-17  Tolerance :   5.0000e-09
  Last Orbital Gradient      ...    1.5958e-06  Tolerance :   1.0000e-05
  Last Orbital Rotation      ...    5.7912e-06  Tolerance :   1.0000e-05

             **** THE GBW FILE WAS UPDATED (frag2.gbw) ****
             **** DENSITY frag2.scfp WAS UPDATED ****
             **** ENERGY FILE WAS UPDATED (frag2.en.tmp) ****
             **** THE GBW FILE WAS UPDATED (frag2.gbw) ****
             **** DENSITY frag2.scfp WAS UPDATED ****
----------------
ORBITAL ENERGIES
----------------

  NO   OCC          E(Eh)            E(eV) 
   0   2.0000     -20.645550      -561.7940 
   1   2.0000     -20.593201      -560.3695 
   2   2.0000     -20.593177      -560.3688 
   3   2.0000     -11.428932      -310.9971 
   4   2.0000     -11.428868      -310.9953 
   5   2.0000     -11.330397      -308.3158 
   6   2.0000     -11.329139      -308.2815 
   7   2.0000      -1.507131       -41.0111 
   8   2.0000      -1.437439       -39.1147 
   9   2.0000      -1.389926       -37.8218 
  10   2.0000      -1.141917       -31.0731 
  11   2.0000      -0.966699       -26.3052 
  12   2.0000      -0.856527       -23.3073 
  13   2.0000      -0.820783       -22.3346 
  14   2.0000      -0.732165       -19.9232 
  15   2.0000      -0.692886       -18.8544 
  16   2.0000      -0.690424       -18.7874 
  17   2.0000      -0.664316       -18.0769 
  18   2.0000      -0.645550       -17.5663 
  19   2.0000      -0.609811       -16.5938 
  20   2.0000      -0.576693       -15.6926 
  21   2.0000      -0.509450       -13.8628 
  22   2.0000      -0.505283       -13.7495 
  23   2.0000      -0.480816       -13.0837 
  24   2.0000      -0.437827       -11.9139 
  25   0.0000      -0.000453        -0.0123 
  26   0.0000       0.137584         3.7439 
  27   0.0000       0.160291         4.3617 
  28   0.0000       0.166864         4.5406 
  29   0.0000       0.190172         5.1748 
  30   0.0000       0.200561         5.4575 
  31   0.0000       0.234818         6.3897 
  32   0.0000       0.238946         6.5021 
  33   0.0000       0.280096         7.6218 
  34   0.0000       0.299211         8.1419 
  35   0.0000       0.309729         8.4281 
  36   0.0000       0.322819         8.7843 
  37   0.0000       0.345586         9.4039 
  38   0.0000       0.354276         9.6404 
  39   0.0000       0.383043        10.4231 
  40   0.0000       0.402419        10.9504 
  41   0.0000       0.417954        11.3731 
  42   0.0000       0.431439        11.7401 
  43   0.0000       0.436522        11.8784 
  44   0.0000       0.459371        12.5001 
  45   0.0000       0.467108        12.7107 
  46   0.0000       0.490697        13.3526 
  47   0.0000       0.523688        14.2503 
  48   0.0000       0.533533        14.5182 
  49   0.0000       0.538335        14.6488 
  50   0.0000       0.577666        15.7191 
  51   0.0000       0.595105        16.1936 
  52   0.0000       0.644943        17.5498 
  53   0.0000       0.660328        17.9684 
  54   0.0000       0.666896        18.1472 
  55   0.0000       0.681389        18.5415 
  56   0.0000       0.711226        19.3534 
  57   0.0000       0.731397        19.9023 
  58   0.0000       0.732749        19.9391 
  59   0.0000       0.759118        20.6567 
  60   0.0000       0.772961        21.0333 
  61   0.0000       0.783034        21.3074 
  62   0.0000       0.833910        22.6918 
  63   0.0000       0.878165        23.8961 
  64   0.0000       0.879203        23.9243 
  65   0.0000       0.910802        24.7842 
  66   0.0000       0.919048        25.0086 
  67   0.0000       0.998686        27.1756 
  68   0.0000       1.002819        27.2881 
  69   0.0000       1.048016        28.5180 
  70   0.0000       1.062604        28.9149 
  71   0.0000       1.095668        29.8146 
  72   0.0000       1.100558        29.9477 
  73   0.0000       1.126538        30.6547 
  74   0.0000       1.182510        32.1777 
  75   0.0000       1.198335        32.6084 
  76   0.0000       1.221144        33.2290 
  77   0.0000       1.267854        34.5001 
  78   0.0000       1.283829        34.9348 
  79   0.0000       1.303492        35.4698 
  80   0.0000       1.323468        36.0134 
  81   0.0000       1.347553        36.6688 
  82   0.0000       1.442320        39.2475 
  83   0.0000       1.487406        40.4744 
  84   0.0000       1.538211        41.8569 
  85   0.0000       1.569727        42.7144 
  86   0.0000       1.597232        43.4629 
  87   0.0000       1.618448        44.0402 
  88   0.0000       1.630942        44.3802 
  89   0.0000       1.688577        45.9485 
  90   0.0000       1.693472        46.0817 
  91   0.0000       1.727502        47.0077 
  92   0.0000       1.757447        47.8226 
  93   0.0000       1.770318        48.1728 
  94   0.0000       1.772095        48.2211 
  95   0.0000       1.832607        49.8678 
  96   0.0000       1.910764        51.9945 
  97   0.0000       1.973910        53.7128 
  98   0.0000       2.021720        55.0138 
  99   0.0000       2.043488        55.6061 
 100   0.0000       2.062434        56.1217 
 101   0.0000       2.089029        56.8454 
 102   0.0000       2.098191        57.0947 
 103   0.0000       2.166360        58.9496 
 104   0.0000       2.169875        59.0453 
 105   0.0000       2.197775        59.8045 
 106   0.0000       2.230623        60.6983 
 107   0.0000       2.278304        61.9958 
 108   0.0000       2.288109        62.2626 
 109   0.0000       2.317882        63.0728 
 110   0.0000       2.380305        64.7714 
 111   0.0000       2.411573        65.6222 
 112   0.0000       2.441742        66.4432 
 113   0.0000       2.443853        66.5006 
 114   0.0000       2.507961        68.2451 
 115   0.0000       2.536711        69.0274 
 116   0.0000       2.540929        69.1422 
 117   0.0000       2.571050        69.9618 
 118   0.0000       2.640711        71.8574 
 119   0.0000       2.679010        72.8996 
 120   0.0000       2.739527        74.5463 
 121   0.0000       2.766127        75.2701 
 122   0.0000       2.771409        75.4139 
 123   0.0000       2.878123        78.3177 
 124   0.0000       2.896247        78.8109 
 125   0.0000       2.902338        78.9766 
 126   0.0000       2.922639        79.5290 
 127   0.0000       2.938824        79.9695 
 128   0.0000       2.998059        81.5813 
 129   0.0000       3.027275        82.3763 
 130   0.0000       3.048714        82.9597 
 131   0.0000       3.065362        83.4127 
 132   0.0000       3.092589        84.1536 
 133   0.0000       3.129801        85.1662 
 134   0.0000       3.136809        85.3569 
 135   0.0000       3.154103        85.8275 
 136   0.0000       3.201560        87.1189 
 137   0.0000       3.243180        88.2514 
 138   0.0000       3.268111        88.9298 
 139   0.0000       3.303859        89.9026 
 140   0.0000       3.313131        90.1549 
 141   0.0000       3.342651        90.9582 
 142   0.0000       3.359509        91.4169 
 143   0.0000       3.379562        91.9625 
 144   0.0000       3.385227        92.1167 
 145   0.0000       3.412645        92.8628 
 146   0.0000       3.430915        93.3599 
 147   0.0000       3.453495        93.9744 
 148   0.0000       3.479363        94.6783 
 149   0.0000       3.556019        96.7642 
 150   0.0000       3.559618        96.8621 
 151   0.0000       3.565924        97.0337 
 152   0.0000       3.582237        97.4776 
 153   0.0000       3.587175        97.6120 
 154   0.0000       3.611469        98.2731 
 155   0.0000       3.640818        99.0717 
 156   0.0000       3.688735       100.3756 
 157   0.0000       3.691374       100.4474 
 158   0.0000       3.734550       101.6223 
 159   0.0000       3.774512       102.7097 
 160   0.0000       3.778977       102.8312 
 161   0.0000       3.822147       104.0059 
 162   0.0000       3.891499       105.8931 
 163   0.0000       3.925512       106.8186 
 164   0.0000       3.978530       108.2613 
 165   0.0000       4.062074       110.5346 
 166   0.0000       4.135435       112.5309 
 167   0.0000       4.230513       115.1181 
 168   0.0000       4.232087       115.1609 
 169   0.0000       4.298920       116.9795 
 170   0.0000       4.366196       118.8102 
 171   0.0000       4.371149       118.9450 
 172   0.0000       4.393515       119.5536 
 173   0.0000       4.519459       122.9807 
 174   0.0000       4.572656       124.4283 
 175   0.0000       4.587742       124.8388 
 176   0.0000       4.701746       127.9410 
 177   0.0000       4.827826       131.3718 
 178   0.0000       4.840525       131.7174 
 179   0.0000       4.909917       133.6056 
 180   0.0000       4.926165       134.0478 
 181   0.0000       5.028002       136.8189 
 182   0.0000       5.044217       137.2601 
 183   0.0000       5.090333       138.5150 
 184   0.0000       5.195991       141.3901 
 185   0.0000       5.335823       145.1951 
 186   0.0000       5.571598       151.6109 
 187   0.0000       5.589361       152.0943 
 188   0.0000       5.607763       152.5950 
 189   0.0000       5.609581       152.6445 
 190   0.0000       5.648923       153.7150 
 191   0.0000       5.809079       158.0731 
 192   0.0000       5.864489       159.5809 
 193   0.0000       5.992127       163.0541 
 194   0.0000       6.027408       164.0141 
 195   0.0000       6.030101       164.0874 
 196   0.0000       6.150868       167.3736 
 197   0.0000       6.157940       167.5661 
 198   0.0000       6.320513       171.9899 
 199   0.0000       6.533385       177.7824 
 200   0.0000       6.568977       178.7509 
 201   0.0000       6.592348       179.3869 
 202   0.0000       6.640762       180.7043 
 203   0.0000       6.787639       184.7010 
 204   0.0000       6.833494       185.9488 
 205   0.0000       6.844523       186.2489 
 206   0.0000       6.932250       188.6361 
 207   0.0000       6.933963       188.6827 
 208   0.0000       6.977301       189.8620 
 209   0.0000       7.106600       193.3804 
 210   0.0000       7.132688       194.0903 
 211   0.0000       7.260248       197.5614 
 212   0.0000       7.270251       197.8336 
 213   0.0000       7.277962       198.0434 
 214   0.0000       7.290806       198.3929 
 215   0.0000       7.393149       201.1778 
 216   0.0000       7.464821       203.1281 
 217   0.0000       7.510627       204.3745 
 218   0.0000       7.576529       206.1678 
 219   0.0000       7.604546       206.9302 
 220   0.0000       7.733728       210.4454 
 221   0.0000       7.890348       214.7073 
 222   0.0000      23.139371       629.6543 
 223   0.0000      23.537928       640.4996 
 224   0.0000      23.937852       651.3821 
 225   0.0000      24.467301       665.7891 
 226   0.0000      45.393329      1235.2153 
 227   0.0000      45.424737      1236.0699 
 228   0.0000      45.558913      1239.7211 

                    ********************************
                    * MULLIKEN POPULATION ANALYSIS *
                    ********************************

-----------------------
MULLIKEN ATOMIC CHARGES
-----------------------
   0 C :    0.493943
   1 C :    0.492430
   2 C :   -0.139133
   3 C :   -0.141575
   4 O :   -0.385672
   5 O :   -0.305202
   6 O :   -0.385827
   7 H :    0.185634
   8 H :    0.185402
Sum of atomic charges:   -0.0000000

--------------------------------
MULLIKEN REDUCED ORBITAL CHARGES
--------------------------------
  0 C s       :     3.020154  s :     3.020154
      pz      :     0.703977  p :     2.190063
      px      :     0.806628
      py      :     0.679458
      dz2     :     0.049799  d :     0.270041
      dxz     :     0.098618
      dyz     :     0.081804
      dx2y2   :     0.016981
      dxy     :     0.022838
      f0      :     0.005493  f :     0.025799
      f+1     :     0.006863
      f-1     :     0.004526
      f+2     :     0.003426
      f-2     :     0.003585
      f+3     :     0.000913
      f-3     :     0.000994
  1 C s       :     3.021077  s :     3.021077
      pz      :     0.670839  p :     2.190760
      px      :     0.830183
      py      :     0.689738
      dz2     :     0.083664  d :     0.269933
      dxz     :     0.062570
      dyz     :     0.064505
      dx2y2   :     0.028613
      dxy     :     0.030581
      f0      :     0.006579  f :     0.025800
      f+1     :     0.004586
      f-1     :     0.003371
      f+2     :     0.004542
      f-2     :     0.004051
      f+3     :     0.001319
      f-3     :     0.001354
  2 C s       :     3.178489  s :     3.178489
      pz      :     0.997233  p :     2.866026
      px      :     0.958491
      py      :     0.910302
      dz2     :     0.025422  d :     0.087074
      dxz     :     0.022882
      dyz     :     0.019799
      dx2y2   :     0.010478
      dxy     :     0.008492
      f0      :     0.001428  f :     0.007545
      f+1     :     0.001793
      f-1     :     0.001362
      f+2     :     0.000956
      f-2     :     0.000400
      f+3     :     0.000782
      f-3     :     0.000825
  3 C s       :     3.180780  s :     3.180780
      pz      :     0.976449  p :     2.866117
      px      :     0.977811
      py      :     0.911857
      dz2     :     0.019447  d :     0.087125
      dxz     :     0.030928
      dyz     :     0.018766
      dx2y2   :     0.012417
      dxy     :     0.005567
      f0      :     0.001501  f :     0.007553
      f+1     :     0.001530
      f-1     :     0.001258
      f+2     :     0.001389
      f-2     :     0.000450
      f+3     :     0.000900
      f-3     :     0.000525
  4 O s       :     3.839682  s :     3.839682
      pz      :     1.456146  p :     4.505733
      px      :     1.669606
      py      :     1.379980
      dz2     :     0.010282  d :     0.038000
      dxz     :     0.010304
      dyz     :     0.010277
      dx2y2   :     0.003685
      dxy     :     0.003452
      f0      :     0.000445  f :     0.002258
      f+1     :     0.000607
      f-1     :     0.000363
      f+2     :     0.000392
      f-2     :     0.000385
      f+3     :     0.000042
      f-3     :     0.000024
  5 O s       :     3.771657  s :     3.771657
      pz      :     1.212429  p :     4.490046
      px      :     1.538224
      py      :     1.739394
      dz2     :     0.005570  d :     0.041520
      dxz     :     0.021174
      dyz     :     0.003582
      dx2y2   :     0.005397
      dxy     :     0.005796
      f0      :     0.000366  f :     0.001979
      f+1     :     0.000608
      f-1     :     0.000262
      f+2     :     0.000355
      f-2     :     0.000185
      f+3     :     0.000097
      f-3     :     0.000106
  6 O s       :     3.839707  s :     3.839707
      pz      :     1.363936  p :     4.505853
      px      :     1.735714
      py      :     1.406204
      dz2     :     0.014041  d :     0.038009
      dxz     :     0.009518
      dyz     :     0.012645
      dx2y2   :     0.000681
      dxy     :     0.001125
      f0      :     0.000765  f :     0.002258
      f+1     :     0.000632
      f-1     :     0.000613
      f+2     :     0.000101
      f-2     :     0.000150
      f+3     :    -0.000002
      f-3     :    -0.000001
  7 H s       :     0.790554  s :     0.790554
      pz      :     0.006941  p :     0.023811
      px      :     0.013263
      py      :     0.003607
  8 H s       :     0.790786  s :     0.790786
      pz      :     0.009161  p :     0.023812
      px      :     0.010515
      py      :     0.004135


                     *******************************
                     * LOEWDIN POPULATION ANALYSIS *
                     *******************************

----------------------
LOEWDIN ATOMIC CHARGES
----------------------
   0 C :   -0.323467
   1 C :   -0.323466
   2 C :   -0.051745
   3 C :   -0.051904
   4 O :    0.102395
   5 O :    0.231012
   6 O :    0.102485
   7 H :    0.157326
   8 H :    0.157363

-------------------------------
LOEWDIN REDUCED ORBITAL CHARGES
-------------------------------
  0 C s       :     2.749548  s :     2.749548
      pz      :     0.922856  p :     2.513524
      px      :     0.907046
      py      :     0.683622
      dz2     :     0.235268  d :     0.914231
      dxz     :     0.333295
      dyz     :     0.189496
      dx2y2   :     0.075141
      dxy     :     0.081032
      f0      :     0.034785  f :     0.146164
      f+1     :     0.040602
      f-1     :     0.020599
      f+2     :     0.021069
      f-2     :     0.019667
      f+3     :     0.004516
      f-3     :     0.004925
  1 C s       :     2.749559  s :     2.749559
      pz      :     0.863767  p :     2.513579
      px      :     0.939005
      py      :     0.710807
      dz2     :     0.275701  d :     0.914158
      dxz     :     0.267588
      dyz     :     0.168687
      dx2y2   :     0.097332
      dxy     :     0.104851
      f0      :     0.040204  f :     0.146169
      f+1     :     0.026842
      f-1     :     0.017962
      f+2     :     0.026390
      f-2     :     0.023472
      f+3     :     0.005489
      f-3     :     0.005810
  2 C s       :     2.806722  s :     2.806722
      pz      :     1.041168  p :     2.879772
      px      :     0.992006
      py      :     0.846598
      dz2     :     0.085793  d :     0.327443
      dxz     :     0.121571
      dyz     :     0.040598
      dx2y2   :     0.042417
      dxy     :     0.037064
      f0      :     0.008532  f :     0.037809
      f+1     :     0.011355
      f-1     :     0.005243
      f+2     :     0.002858
      f-2     :     0.002339
      f+3     :     0.003671
      f-3     :     0.003811
  3 C s       :     2.806784  s :     2.806784
      pz      :     1.046655  p :     2.879836
      px      :     0.994457
      py      :     0.838724
      dz2     :     0.079380  d :     0.327492
      dxz     :     0.137614
      dyz     :     0.047595
      dx2y2   :     0.040655
      dxy     :     0.022249
      f0      :     0.007148  f :     0.037793
      f+1     :     0.011722
      f-1     :     0.004834
      f+2     :     0.004624
      f-2     :     0.003402
      f+3     :     0.003521
      f-3     :     0.002542
  4 O s       :     3.409374  s :     3.409374
      pz      :     1.519741  p :     4.416896
      px      :     1.579178
      py      :     1.317977
      dz2     :     0.020119  d :     0.065699
      dxz     :     0.021111
      dyz     :     0.014485
      dx2y2   :     0.004508
      dxy     :     0.005476
      f0      :     0.001238  f :     0.005636
      f+1     :     0.001635
      f-1     :     0.000987
      f+2     :     0.000670
      f-2     :     0.000907
      f+3     :     0.000088
      f-3     :     0.000111
  5 O s       :     3.283629  s :     3.283629
      pz      :     1.257265  p :     4.387743
      px      :     1.530032
      py      :     1.600446
      dz2     :     0.023099  d :     0.091804
      dxz     :     0.043182
      dyz     :     0.011202
      dx2y2   :     0.007688
      dxy     :     0.006633
      f0      :     0.001206  f :     0.005811
      f+1     :     0.001724
      f-1     :     0.000493
      f+2     :     0.001376
      f-2     :     0.000663
      f+3     :     0.000164
      f-3     :     0.000186
  6 O s       :     3.409322  s :     3.409322
      pz      :     1.497409  p :     4.416852
      px      :     1.602346
      py      :     1.317097
      dz2     :     0.031020  d :     0.065703
      dxz     :     0.019019
      dyz     :     0.013443
      dx2y2   :     0.001054
      dxy     :     0.001169
      f0      :     0.002427  f :     0.005637
      f+1     :     0.001801
      f-1     :     0.000964
      f+2     :     0.000219
      f-2     :     0.000212
      f+3     :     0.000006
      f-3     :     0.000007
  7 H s       :     0.781039  s :     0.781039
      pz      :     0.018025  p :     0.061635
      px      :     0.032809
      py      :     0.010801
  8 H s       :     0.780992  s :     0.780992
      pz      :     0.022883  p :     0.061645
      px      :     0.026585
      py      :     0.012176


                      *****************************
                      * MAYER POPULATION ANALYSIS *
                      *****************************

  NA   - Mulliken gross atomic population
  ZA   - Total nuclear charge
  QA   - Mulliken gross atomic charge
  VA   - Mayer's total valence
  BVA  - Mayer's bonded valence
  FA   - Mayer's free valence

  ATOM       NA         ZA         QA         VA         BVA        FA
  0 C      5.5061     6.0000     0.4939     4.1660     4.1660    -0.0000
  1 C      5.5076     6.0000     0.4924     4.1662     4.1662    -0.0000
  2 C      6.1391     6.0000    -0.1391     3.8664     3.8664    -0.0000
  3 C      6.1416     6.0000    -0.1416     3.8660     3.8660    -0.0000
  4 O      8.3857     8.0000    -0.3857     2.0835     2.0835    -0.0000
  5 O      8.3052     8.0000    -0.3052     2.0191     2.0191     0.0000
  6 O      8.3858     8.0000    -0.3858     2.0838     2.0838    -0.0000
  7 H      0.8144     1.0000     0.1856     0.9657     0.9657    -0.0000
  8 H      0.8146     1.0000     0.1854     0.9659     0.9659    -0.0000

  Mayer bond orders larger than 0.100000
B(  0-C ,  3-C ) :   1.0343 B(  0-C ,  5-O ) :   1.0292 B(  0-C ,  6-O ) :   2.0497 
B(  1-C ,  2-C ) :   1.0348 B(  1-C ,  4-O ) :   2.0497 B(  1-C ,  5-O ) :   1.0293 
B(  2-C ,  3-C ) :   1.8564 B(  2-C ,  8-H ) :   0.9420 B(  3-C ,  7-H ) :   0.9423 


-------
TIMINGS
-------

Total SCF time: 0 days 0 hours 0 min 12 sec 

Total time                  ....      12.718 sec
Sum of individual times     ....      12.439 sec  ( 97.8%)

Fock matrix formation       ....      11.583 sec  ( 91.1%)
  Split-RI-J                ....       1.011 sec  (  8.7% of F)
  Chain of spheres X        ....       9.422 sec  ( 81.3% of F)
Diagonalization             ....       0.108 sec  (  0.8%)
Density matrix formation    ....       0.007 sec  (  0.1%)
Population analysis         ....       0.049 sec  (  0.4%)
Initial guess               ....       0.120 sec  (  0.9%)
Orbital Transformation      ....       0.000 sec  (  0.0%)
Orbital Orthonormalization  ....       0.000 sec  (  0.0%)
DIIS solution               ....       0.066 sec  (  0.5%)
SOSCF solution              ....       0.126 sec  (  1.0%)

Maximum memory used throughout the entire SCF-calculation: 68.4 MB


           ************************************************************
           *        Program running with 8 parallel MPI-processes     *
           *              working on a common directory               *
           ************************************************************


------------------------------------------------------------------------------- 
                              ORCA-MATRIX DRIVEN CI                            
------------------------------------------------------------------------------- 


Wavefunction type
-----------------
Correlation treatment                      ...      CCSD     
Single excitations                         ... ON
Orbital optimization                       ... OFF
Calculation of Z vector                    ... OFF
Calculation of Brueckner orbitals          ... OFF
Perturbative triple excitations            ... ON
Calculation of F12 correction              ... OFF
Frozen core treatment                      ... chemical core (14 el)
Reference Wavefunction                     ... RHF
  Internal Orbitals:     7 ...   24 ( 18 MO's/ 36 electrons)
  Virtual  Orbitals:    25 ...  228 (204 MO's              )
Number of AO's                             ...    229
Number of electrons                        ...     50
Number of correlated electrons             ...     36

Algorithmic settings
--------------------
Integral transformation                    ... All integrals via the RI transformation
K(C) Formation                             ... RI-DLPNO
   PNO-Integral Storage                    ... ON DISK
   PNO occupation number cut-off           ... 1.000e-07
   Singles PNO occupation number cut-off   ... 3.000e-09
   PNO Mulliken prescreening cut-off       ... 1.000e-03
   Domain cut-off (Mulliken population)    ... 1.000e-03
   PNO Normalization                       ...    1
Maximum number of iterations               ...        50
Convergence tolerance (max. residuum)      ... 1.000e-05
Level shift for amplitude update           ... 2.000e-01
Maximum number of DIIS vectors             ...         7
DIIS turned on at iteration                ...         0
Damping before turning on DIIS             ...     0.500
Damping after turning on DIIS              ...     0.000
Pair specific amplitude update             ... OFF
Natural orbital iterations                 ... OFF
Perturbative natural orbital generation    ... OFF
Printlevel                                 ... 2

Singles Fock matrix elements calculated using PNOs.

Memory handling:
----------------
Maximum memory for working arrays          ...    512 MB
Data storage in matrix containers          ... UNCOMPRESSED
Data type for integral storage             ... DOUBLE
In-Core Storage of quantities:
   Amplitudes+Sigma Vector      ... NO
   J+K operators                ... NO
   DIIS vectors                 ... NO
   3-external integrals         ... NO
   4-external integrals         ... NO

Localization treatment:
-----------------------
Localization option                        ...    6
Localization threshhold                    ... -1.0e+00
Using relative localization threshhold     ... 1.0e-08
Neglect threshold for strong pairs         ... 1.000e-05 Eh
Prescreening threshold for very weak pairs ... 1.000e-07 Eh

Initializing the integral package          ... done
Localizing the valence orbitals
------------------------------------------------------------------------------
                           ORCA ORBITAL LOCALIZATION
------------------------------------------------------------------------------

Input orbitals are from                  ... frag2.gbw
Output orbitals are to                   ... frag2.loc
Max. number of iterations                ... 128
Localizations seeded randomly            ... off
Convergence tolerance                    ... 1.000e-06
Using relative localization threshhold   ... 1.000e-08
Treshold for strong local MOs            ... 9.500e-01
Treshold for bond MOs                    ... 8.500e-01
Operator                                 ... 0
Orbital range for localization           ... 7 to 24
Localization criterion                   ... FOSTER-BOYS (AUGMENTED HESSIAN)
Doing the dipole integrals     ... o.k.
Initial value of the localization sum :   379.785535
ITERATION   0 : L=  398.7621613573 DL=  1.90e+01 (AVERGE_DL)=    0.3521792735 
ITERATION   1 : L=  401.1332365942 DL=  2.37e+00 (AVERGE_DL)=    0.1244878459 
ITERATION   2 : L=  401.2711057071 DL=  1.38e-01 (AVERGE_DL)=    0.0300184162 
ITERATION   3 : L=  401.2856280377 DL=  1.45e-02 (AVERGE_DL)=    0.0097425455 
ITERATION   4 : L=  401.2882841380 DL=  2.66e-03 (AVERGE_DL)=    0.0041665492 
ITERATION   5 : L=  401.2889186240 DL=  6.34e-04 (AVERGE_DL)=    0.0020364103 
ITERATION   6 : L=  401.2891039892 DL=  1.85e-04 (AVERGE_DL)=    0.0011006988 
ITERATION   7 : L=  401.2891695433 DL=  6.56e-05 (AVERGE_DL)=    0.0006545672 
ITERATION   8 : L=  401.2891952973 DL=  2.58e-05 (AVERGE_DL)=    0.0004102760 
ITERATION   9 : L=  401.2892059221 DL=  1.06e-05 (AVERGE_DL)=    0.0002635208 
ITERATION  10 : L=  401.2892103948 DL=  4.47e-06 (AVERGE_DL)=    0.0001709775 
ITERATION  11 : L=  401.2892122937 DL=  1.90e-06 (AVERGE_DL)=    0.0001114064 
ITERATION  12 : L=  401.2892131033 DL=  8.10e-07 (AVERGE_DL)=    0.0000727433 
LOCALIZATION SUM CONVERGED

------------------------------------------------------
AUGMENTED HESSIAN OPTIMIZATION OF FOSTER-BOYS ORBITALS
------------------------------------------------------

Spin operator:           0
Orbital window:          7 to 24
Number of iterations:    128
Gradient tolerance:      1.000e-06
Number of pairs:         153
Davidson threshold:      2000
Diagonalization method:  LAPACK
Iter:    0   L: 401.2892131033   Grad. norm: 1.386352e-03
   *** Likely close to a maximum now. ***
       Augmented Hessian eigenvalues:  1.22e-06 -3.68e-01 -1.17e+00 -1.17e+00 ... 
Iter:    1   L: 401.2892137127   Grad. norm: 2.958467e-06
Iter:    2   L: 401.2892137127   Grad. norm: 4.181382e-12
LOCALIZATION HAS CONVERGED.

Eigenvalues of the Hessian:
  0 -3.674e-01
  1 -1.172e+00
  2 -1.174e+00
  3 -2.421e+00
  4 -2.422e+00
  5 -2.743e+00
  6 -2.745e+00
  7 -2.777e+00
  8 -4.460e+00
  9 -4.792e+00
    ...


------------------------------------------------------------------------------- 
                    LOCALIZED MOLECULAR ORBITAL COMPOSITIONS                   
------------------------------------------------------------------------------- 

The Mulliken populations for each LMO on each atom are computed
The LMO`s will be ordered according to atom index and type
  (A) Strongly localized MO`s have populations of >=0.950 on one atom
  (B) Two center bond orbitals have populations of >=0.850 on two atoms
  (C) Other MO`s are considered to be `delocalized`

FOUND  -   5 strongly local MO`s
       -  13 two center bond MO`s
       -   0 significantly delocalized MO`s

Rather strongly localized orbitals:
MO  11:   6O  -   0.957100
MO  10:   6O  -   0.958745
MO   9:   5O  -   0.953525
MO   8:   4O  -   0.957096
MO   7:   4O  -   0.958771
Bond-like localized orbitals:
MO  24:   8H  -   0.412235  and   2C  -   0.591371
MO  23:   7H  -   0.412158  and   3C  -   0.591926
MO  22:   6O  -   0.642711  and   0C  -   0.363738
MO  21:   6O  -   0.650273  and   0C  -   0.358760
MO  20:   5O  -   0.662488  and   1C  -   0.361317
MO  19:   5O  -   0.662640  and   0C  -   0.361081
MO  18:   5O  -   0.942220  and   0C  -   0.026401
MO  17:   4O  -   0.650268  and   1C  -   0.358634
MO  16:   4O  -   0.642683  and   1C  -   0.363954
MO  15:   3C  -   0.490523  and   2C  -   0.490060
MO  14:   3C  -   0.493688  and   2C  -   0.494015
MO  13:   3C  -   0.530383  and   0C  -   0.510927
MO  12:   2C  -   0.530035  and   1C  -   0.511437
Localized MO's were stored in: frag2.loc

Localizing the core orbitals
------------------------------------------------------------------------------
                           ORCA ORBITAL LOCALIZATION
------------------------------------------------------------------------------

Input orbitals are from                  ... frag2.loc
Output orbitals are to                   ... frag2.loc
Max. number of iterations                ... 128
Localizations seeded randomly            ... off
Convergence tolerance                    ... 1.000e-06
Using relative localization threshhold   ... 1.000e-08
Treshold for strong local MOs            ... 9.500e-01
Treshold for bond MOs                    ... 8.500e-01
Operator                                 ... 0
Orbital range for localization           ... 0 to 6
Localization criterion                   ... FOSTER-BOYS (AUGMENTED HESSIAN)
Doing the dipole integrals     ... o.k.
Initial value of the localization sum :   140.029137
ITERATION   0 : L=  140.0291417833 DL=  4.98e-06 (AVERGE_DL)=    0.0004868709 
ITERATION   1 : L=  140.0291417833 DL=  0.00e+00 (AVERGE_DL)=    0.0000000000 
LOCALIZATION SUM CONVERGED

------------------------------------------------------
AUGMENTED HESSIAN OPTIMIZATION OF FOSTER-BOYS ORBITALS
------------------------------------------------------

Spin operator:           0
Orbital window:          0 to 6
Number of iterations:    128
Gradient tolerance:      1.000e-06
Number of pairs:         21
Davidson threshold:      2000
Diagonalization method:  LAPACK
Iter:    0   L: 140.0291417833   Grad. norm: 5.105886e-06
   *** Likely close to a maximum now. ***
       Augmented Hessian eigenvalues:  2.57e-13 -2.07e+01 -2.07e+01 -2.80e+01 ... 
Iter:    1   L: 140.0291417833   Grad. norm: 1.295035e-19
LOCALIZATION HAS CONVERGED.

Eigenvalues of the Hessian:
  0 -2.074e+01
  1 -2.074e+01
  2 -2.804e+01
  3 -2.826e+01
  4 -2.826e+01
  5 -3.148e+01
  6 -3.148e+01
  7 -7.451e+01
  8 -7.452e+01
  9 -7.541e+01
    ...


------------------------------------------------------------------------------- 
                    LOCALIZED MOLECULAR ORBITAL COMPOSITIONS                   
------------------------------------------------------------------------------- 

The Mulliken populations for each LMO on each atom are computed
The LMO`s will be ordered according to atom index and type
  (A) Strongly localized MO`s have populations of >=0.950 on one atom
  (B) Two center bond orbitals have populations of >=0.850 on two atoms
  (C) Other MO`s are considered to be `delocalized`

FOUND  -   7 strongly local MO`s
       -   0 two center bond MO`s
       -   0 significantly delocalized MO`s

Rather strongly localized orbitals:
MO   6:   6O  -   0.999105
MO   5:   5O  -   0.999210
MO   4:   4O  -   0.999104
MO   3:   3C  -   1.001540
MO   2:   2C  -   1.001534
MO   1:   1C  -   0.999868
MO   0:   0C  -   0.999859
Localized MO's were stored in: frag2.loc

Warning: reference  - re-canonicalizations have been set to INT 1 VIRT 1
Warning: internal orbitals are localized - no re-canonicalization of internal orbitals
Warning: UsePNO is turned on - no re-canonicalization of internal and virtual orbitals

--------------------------
CLOSED-SHELL FOCK OPERATOR
--------------------------

Restoring SHARK [2] ... ok
Entering RIJCOSX section for the Fock matrix
Trying to retrieve the full J-matrix              ... done
Updating the Fock matrix                          ... done
Making the frozen core Coulomb matrix             ... SHARKdone
Retrieving the full K-matrix                      ... done
Calculating the frozen core K-matrix              ... done
Updating the Fock matrix                          ... done
Time needed for Fock operator              ...            1.538 sec
Reference energy                           ...   -377.355130762

--------------
DLPNO SETTINGS (2015 fully linear scaling implementation)
--------------

TCutMKN:           1.000e-03
TCutPAO:           1.000e-03
TCutPNO:           1.000e-07
TCutPNOSingles:    3.000e-09
TCutEN:            9.700e-01
TCutPAOExt:        1.000e-01
TCutPairs:         1.000e-05
TCutPre:           1.000e-07
TCutOSV:           1.000e-06
TCutDOij:          1.000e-05
TCutDO:            5.000e-03
TCutC:             1.000e-04
TCutCPAO:          1.000e-03
TCutCMO:           1.000e-03
TScaleDOMP2PreScr: 2.000e+00
TScaleMKNMP2PreScr:1.000e+01
TScalePNOMP2PreScr:1.000e+00
PAO overlap thresh 1.000e-08
Using PNOs for Singles Fock computation
Use new domains
Use fully linear algorithm
TCutTNO:           1.000e-09
TCutMP2Pairs:      1.000e-06
TCutDOStrong:      2.000e-03
TCutMKNStrong:     1.000e-02
TCutMKNWeak:       1.000e-01
TCutDOWeak:        4.000e-03
NTCutTNO:          1

--------------------------
Mulliken population of the LMOs            ... ok
Performing proximity check                 ... No problems found
Calculating differential overlap integrals ... ok

--------------------------
ELECTRON PAIR PRESCREENING
--------------------------

Dipole-based pair screening          .... used

   TCutDOij = 1.000000e-05
   TCutPre  = 1.000000e-07
   .... Finished loop over pairs
Total time spent in the prescreening                  ...     0.000 sec
sum of pair energies estimated for screened out pairs ...       0.000000000000 Eh
Thresholds for map construction and integral transformation for crude MP2:
   TCutMKN                    ...     1.0e-02
   TCutDO                     ...     1.0e-02
   TCutPairs                  ...     1.0e-05
   TCutPNO_CrudeMP2           ...     1.0e-07
   TCutPNOSingles_CrudeMP2    ...     3.0e-09
--------------------------------
LOCAL RI TRANSFORMATION (IAVPAO)
--------------------------------

Orbital window:       7 to 24
Number of PAOs:     229
Basis functions:    229 (85 shells)
Aux. functions:     562 (168 shells)
Use SHARK:           on

Processing maps (0.0 sec)
Average map sizes:
   Aux shells -> MOs              18.0
   Aux shells -> PAOs            229.0
   MOs        -> AO shells        85.0
   PAOs       -> AO shells        85.0

Calculating integrals (0.2 sec, 17.680 MB)
Sorting integrals (0.0 sec, 17.674 MB)
Total time for the integral transformation: 0.3 sec
--------------------------------
INITIAL GUESS AND PNO GENERATION
--------------------------------

PNO truncation parameters                   .... 
    PAOOverlapThresh   =        1.000e-08

    TCutPairs          =        1.000e-05
    TCutPNO            =        1.000e-07
    TCutPNOSingles     =        3.000e-09
    TCutMP2Pairs       =        1.000e-06
    TCutMKN            =        1.000e-02
    TCutDO             =        1.000e-02

Pair selection                          .... not used
Type of local MP2 treatment                 .... semi-local MP2
Strategy for PNO selection                  .... occupation number selection
Pair density normalization                  .... MP2 norm
Spin component scaling                      .... not used

   .... Finished loop over pairs
Making pair pair interaction lists          ... done

                       ===========================
                        171 OF  171 PAIRS ARE KEPT CCSD PAIRS
                          0 OF  171 PAIRS ARE KEPT MP2 PAIRS FOR (T)
                          0 OF  171 PAIRS ARE SKIPPED
                       ===========================

Total time spent in the initial guess                 ...     0.875 sec
SL-MP2 correlation energy (all non-screened pairs)    ...      -1.226824383452 Eh

Initial PNO correlation energy                        ...      -1.225595503912 Eh
sum of pair energies prescreened and skipped MP2 pairs...       0.000000000000 Eh
sum of pair energies of crude MP2 skipped pairs only  ...       0.000000000000 Eh
sum of MP2 pair energies for pairs that were not kept ...       0.000000000000 Eh
sum of PNO error estimates for the kept pairs         ...      -0.001228879540 Eh
                                                          --------------------
sum of all corrections                                         -0.001228879540
Initial total correlation energy                               -1.226824383452
Thresholds for map construction and integral transformation for fine MP2 and CCSD(T) calculation:
   TCutMKN   ...     1.0e-03
   TCutDO    ...     5.0e-03
   TCutPairs ...     1.0e-05
   TCutCMO   ...     1.0e-03
   TCutCPAO  ...     1.0e-03

Thresholds for map construction and integral transformation for strong Triples:
   TCutMKN   ...     1.0e-02
   TCutDO    ...     1.0e-02
   TCutCMO   ...     1.0e-03
   TCutCPAO  ...     1.0e-03

Thresholds for map construction and integral transformation for weak Triples:
   TCutMKN   ...     1.0e-01
   TCutDO    ...     2.0e-02
   TCutCMO   ...     1.0e-03
   TCutCPAO  ...     1.0e-03

--------------------------------
LOCAL RI TRANSFORMATION (IAVPAO)
--------------------------------

Orbital window:       7 to 24
Number of PAOs:     229
Basis functions:    229 (85 shells)
Aux. functions:     562 (168 shells)
Use SHARK:           on

Processing maps (0.0 sec)
Average map sizes:
   Aux shells -> MOs              18.0
   Aux shells -> PAOs            229.0
   MOs        -> AO shells        85.0
   PAOs       -> AO shells        85.0

Calculating integrals (0.2 sec, 17.680 MB)
Sorting integrals (0.0 sec, 17.674 MB)
Total time for the integral transformation: 0.3 sec
--------------------------------
INITIAL GUESS AND PNO GENERATION
--------------------------------

PNO truncation parameters                   .... 
    ScaleTCutPNO       =        1.000e-02
    PAOOverlapThresh   =        1.000e-08

    TCutPairs          =        1.000e-05
    TCutPNO            =        1.000e-07
    TCutPNOSingles     =        3.000e-09
    TCutMP2Pairs       =        1.000e-06
    TCutMKN            =        1.000e-03
    TCutDO             =        5.000e-03

Pair selection                          .... not used
Type of local MP2 treatment                 .... full local PMP2
Strategy for PNO selection                  .... occupation number selection
Pair density normalization                  .... MP2 norm
Spin component scaling                      .... not used

PASS-1: Formation of initial guess LMP2 amplitudes
Initial amplitudes guess done. Entering LMP2 iteration loop:
   Max. no of iterations          ...  50
   Energy convergence tolerance   ...    1.0e-07
   Residual convergence tolerance ...    5.0e-07
   Fock matrix cutoff             ...    1.0e-05 Eh
   DIIS convergence acceleration parameters:
        Max # vectors in DIIS     ... 7
        Start iteration of DIIS   ... 0
        Levelshift                ... 2.000e-01
        Damping factor 1          ... 5.000e-01
        Damping factor 2          ... 1.000e+00
   L-MP2 PNO cut-off              ...   1.0e-09
   L-MP2 PNO cut-off (core)       ...   1.0e-11
                           *** Turning on DIIS ***
LMP2-Iter=   0:  ELMP2= -1.265842180489  DE=   3.9e-02 RMAX=   1.5e-02
LMP2-Iter=   1:  ELMP2= -1.285257415309  DE=   1.9e-02 RMAX=   6.9e-03
LMP2-Iter=   2:  ELMP2= -1.289706144580  DE=   4.4e-03 RMAX=   2.8e-03
LMP2-Iter=   3:  ELMP2= -1.290362202328  DE=   6.6e-04 RMAX=   1.0e-03
LMP2-Iter=   4:  ELMP2= -1.290365510779  DE=   3.3e-06 RMAX=   3.1e-04
LMP2-Iter=   5:  ELMP2= -1.290350821892  DE=   1.5e-05 RMAX=   9.6e-05
LMP2-Iter=   6:  ELMP2= -1.290349677048  DE=   1.1e-06 RMAX=   2.1e-05
LMP2-Iter=   7:  ELMP2= -1.290350359034  DE=   6.8e-07 RMAX=   5.0e-06
LMP2-Iter=   8:  ELMP2= -1.290350674682  DE=   3.2e-07 RMAX=   1.3e-06
LMP2-Iter=   9:  ELMP2= -1.290350652809  DE=   2.2e-08 RMAX=   3.6e-07
LMP2-Iter=  10:  ELMP2= -1.290350641167  DE=   1.2e-08 RMAX=   8.0e-08 => CONVERGED
PASS-2: Formation of Pair natural orbitals
   .... Finished loop over pairs

 PNO Occupation Number Statistics: 
  | Av. % of trace(Dij) retained        ...  99.628399834868
  | sigma^2 in % of trace(Dij) retained ...   3.42e-01
  | Av. % of trace(Di) retained         ...  99.999747570964
  | sigma^2 in % of trace(Di) retained  ...   4.23e-09
 Distributions of % trace(Dij) recovered:
  |       >= 99.9  ...    63 ( 36.8 % of all pairs)
  |   [90.0, 99.0) ...    20 ( 11.7 % of all pairs)
  |   [99.0, 99.9) ...    88 ( 51.5 % of all pairs)
 Distributions of % trace(Di) recovered :
  |       >= 99.9  ...    18 (100.0 % of all I-pairs )

Making pair pair interaction lists          ... done

                       ===========================
                        171 OF  171 PAIRS ARE KEPT
                       ===========================

Total time spent in the initial guess                 ...    11.035 sec
L-MP2 correlation energy (all non-screened pairs)     ...      -1.290350641167 Eh
L-MP2 PNO error correction                            ...      -0.000019950838 Eh
                                                          --------------------
Initial total L-MP2 energy (non-screened pairs)       ...      -1.290370592005 Eh

Initial PNO correlation energy                        ...      -1.289188325559 Eh
sum of pair energies estimated for screened out pairs ...       0.000000000000 Eh
sum of MP2 pair energies for pairs that were not kept ...       0.000000000000 Eh
sum of PNO error estimates for the kept pairs         ...      -0.001182266447 Eh
                                                          --------------------
sum of all corrections                                         -0.001182266447
Initial total correlation energy                               -1.290370592005
Thresholds for map construction and integral transformation for fine MP2 and CCSD(T) calculation:
   TCutMKN   ...     1.0e-03
   TCutDO    ...     5.0e-03
   TCutPairs ...     1.0e-05
   TCutCMO   ...     1.0e-03
   TCutCPAO  ...     1.0e-03

Time for aux screen maps:            0.001
Time for maps after fine MP2:            0.005

PROBLEM (ORCA/DLPNO): not enough memory for MDCI Iterations
        MemNeeded   697.3 MB > MemAvailable   323.9 MB
        Will have to batch evaluation of 4-external contributions to sigma vector

-----------------------------
LOCAL RI TRANSFORMATION (IJV)
-----------------------------

Orbital window:       7 to 24
Basis functions:    229 (85 shells)
Aux. functions:     562 (168 shells)
Use SHARK:           on

Processing maps (0.0 sec)
Average map sizes:
   Aux shells -> MOs(i)           18.0
   Aux shells -> MOs(j)           18.0
   MOs        -> AO shells        85.0

Calculating integrals (0.2 sec, 1.396 MB)
Sorting integrals (0.0 sec, 1.389 MB)
Total time for the integral transformation: 0.2 sec
--------------------------------
LOCAL RI TRANSFORMATION (VABPAO)
--------------------------------

Number of PAOs:     229
Basis functions:    229 (85 shells)
Aux. functions:     562 (168 shells)
Use SHARK:           on

Processing maps (0.0 sec)
Average map sizes:
   Aux shells -> PAOs            229.0
   PAOs       -> AO shells        85.0

Calculating integrals (0.4 sec, 224.859 MB)
Finished


-------------------------------------
Pair Pair Term precalculation with     
RI-(ij|mn) and (im|jn) transformation  
ON THE FLY                             
-------------------------------------

   IBatch   1 (of  18)              ... done (    4.372 sec)
   IBatch   2 (of  18)              ... done (    2.523 sec)
   IBatch   3 (of  18)              ... done (    2.416 sec)
   IBatch   4 (of  18)              ... done (    2.301 sec)
   IBatch   5 (of  18)              ... done (    3.202 sec)
   IBatch   6 (of  18)              ... done (    2.148 sec)
   IBatch   7 (of  18)              ... done (    3.095 sec)
   IBatch   8 (of  18)              ... done (    2.056 sec)
   IBatch   9 (of  18)              ... done (    2.029 sec)
   IBatch  10 (of  18)              ... done (    1.953 sec)
   IBatch  11 (of  18)              ... done (    1.844 sec)
   IBatch  12 (of  18)              ... done (    1.917 sec)
   IBatch  13 (of  18)              ... done (    1.700 sec)
   IBatch  14 (of  18)              ... done (    2.085 sec)
   IBatch  15 (of  18)              ... done (    2.242 sec)
   IBatch  16 (of  18)              ... done (    2.877 sec)
   IBatch  17 (of  18)              ... done (    2.770 sec)
   IBatch  18 (of  18)              ... done (    1.906 sec)
Total EXT                           ...          43.436 sec

---------------------
RI-PNO TRANSFORMATION
---------------------

Total Number of PNOs                   ...  7934
Average number of PNOs per pair        ...    46
Maximal number of PNOs per pair        ...    80
   #pairs with  1 -  5 PNOs   :    0
   #pairs with  6 - 10 PNOs   :    0
   #pairs with 11 - 15 PNOs   :    3
   #pairs with 16 - 20 PNOs   :    3
   #pairs with 21 - 25 PNOs   :   14
   #pairs with 26 - 30 PNOs   :    4
   #pairs with 31 - 35 PNOs   :   16
   #pairs with 36 - 40 PNOs   :   12
   #pairs with 41 - 45 PNOs   :   19
   #pairs with 46 - 50 PNOs   :   18
   #pairs with 51 - 55 PNOs   :   29
   #pairs with 56 - 60 PNOs   :   35
   #pairs with 61 - 65 PNOs   :   11
   #pairs with 66 - 70 PNOs   :    1
   #pairs with 71 - 75 PNOs   :    5
   #pairs with 76 - 80 PNOs   :    1

Generation of (ij|ab)[P] integrals            ... on
Generation of (ia|bc)[P],(ja|bc)[P] integrals ... on
Storage of 3 and 4 external integrals         ... on
Generation of ALL (ka|bc)[P] integrals        ... on
Keep RI integrals in memory                   ... off

Ibatch:  1 (of  1)
Starting 2-4 index PNO integral generation ... done

Timings:
Total PNO integral transformation time     ...         16.901 sec
Size of the 3-external file                ...       165 MB
Size of the 4-external file                ...      1168 MB
Size of the IKJL file                      ...         0 MB
Size of the all 3-external file            ...      1488 MB
Size of the 1-external file                ...         3 MB

Making pair/pair overlap matrices          ... done (    1.089 sec)
Size of the pair overlap file              ... 333 MB
Redoing the guess amplitudes               ... done (    0.004 sec)

-------------------------
FINAL STARTUP INFORMATION
-------------------------

E(0)                                       ...   -377.355130762
E(L-MP2)                                   ...     -1.290370592
E(L-MP2) including corrections             ...     -1.290370592
Initial E(tot)                             ...   -378.645501354
<T|T>                                      ...      0.318873982
Number of pairs included                   ... 171
Total number of pairs                      ... 171

------------------------------------------------
                  RHF COUPLED CLUSTER ITERATIONS
------------------------------------------------

Number of PNO amplitudes to be optimized   ...       399566
Number of non-PNO amplitudes               ...      7116336
Untruncated number of regular amplitudes   ...      7116336

Iter       E(tot)           E(Corr)          Delta-E          Residual     Time
  0   -378.581960494     -1.225647466      0.064723126      0.020577467   14.39
                           *** Turning on DIIS ***
  1   -378.604418006     -1.248104978     -0.022457512      0.010691468   13.84
  2   -378.636445447     -1.280132419     -0.032027441      0.006279865   13.67
  3   -378.644871619     -1.288558591     -0.008426172      0.003512587   13.84
  4   -378.648020609     -1.291707581     -0.003148990      0.001814185   14.10
  5   -378.649209933     -1.292896905     -0.001189324      0.000742033   13.66
  6   -378.649439676     -1.293126648     -0.000229743      0.000335032   13.85
  7   -378.649484628     -1.293171600     -0.000044952      0.000170761   13.90
  8   -378.649511300     -1.293198271     -0.000026672      0.000081146   13.89
  9   -378.649501937     -1.293188908      0.000009363      0.000033706   14.29
 10   -378.649503005     -1.293189976     -0.000001068      0.000015516   14.12
 11   -378.649501263     -1.293188235      0.000001742      0.000008927   14.38
               --- The Coupled-Cluster iterations have converged ---

----------------------
COUPLED CLUSTER ENERGY
----------------------

E(0)                                       ...   -377.355130762
E(CORR)(strong-pairs)                      ...     -1.293188235
E(CORR)(weak-pairs)                        ...     -0.001182266
E(CORR)(corrected)                         ...     -1.294370501
E(TOT)                                     ...   -378.649501263
Singles Norm <S|S>**1/2                    ...      0.102025520  
T1 diagnostic                              ...      0.017004253  

------------------
LARGEST AMPLITUDES
------------------
  15-> 25  15-> 25       0.066677
  15-> 25  14-> 25       0.054149
  14-> 25  14-> 25       0.053987
  19-> 26  19-> 26       0.045184
  20-> 26  20-> 26       0.045133
  16-> 25  16-> 25       0.032965
  22-> 25  22-> 25       0.032952
  17-> 25  17-> 25       0.032517
  21-> 25  21-> 25       0.032514
  18-> 26  -1-> -1       0.029583
  15-> 28  15-> 25       0.026641
  15-> 25  15-> 28       0.026641
  18-> 26  18-> 26       0.026317
  15-> 25  15-> 33       0.026227
  15-> 33  15-> 25       0.026227
  24-> 26  24-> 26       0.025738


-------------------------------------------
DLPNO BASED TRIPLES CORRECTION
-------------------------------------------

Singles multiplier          ...  1.000000
TCutTNO                     ... 1.000e-09
TCutMP2Pairs                ... 1.000e-06
TCutDOStrong                ... 1.000e-02
TCutMKNStrong               ... 1.000e-02
TCutDOWeak                  ... 2.000e-02
TCutMKNWeak                 ... 1.000e-01

Fragment selection                          .... not used
Number of Triples that are to be computed   ...      1122

 . . . . . . . . .             (      6.335 sec)
 . . . . . . . . .
10% done               (     10.154 sec)
 . . . . . . . . .
20% done               (      7.723 sec)
 . . . . . . . . .             (      7.105 sec)
 . . . . . . . . .
30% done               (      6.234 sec)
 . . . . . . . . .             (      6.784 sec)
 . . . . . . . . .
40% done               (      7.417 sec)
 . . . . . . . . .
50% done               (      7.775 sec)
 . . . . . . . . .
60% done               (      7.137 sec)
 . . . . . . . . .
70% done               (      8.236 sec)
 . . . . . . . . .             (      8.037 sec)
 . . . . . . . . .
80% done               (      7.920 sec)
 . . . . . . . . .
90% done               (      8.452 sec)
 . . . . . . . . .             (      2.897 sec)
Triples timings:
Total time for T0               ...   106.805 sec
Total time for Iterative (T)    ...     0.000 sec
Total time of overall (T)       ...   107.088 sec

Triples List generation         ...     0.000 sec
TNO generation                  ...     4.592 sec
Pair density generation         ...     0.005 sec
Look up tables                  ...     0.000 sec
Generating 3-index integrals    ...    50.816 sec
  Make 4-ind.int. from 3-ind.int...    19.188 sec
  Projecting amplitudes (D + S) ...     7.175 sec
  Downprojecting integrals      ...     0.002 sec
  Energy contr. (sum over a,b,c)...     6.365 sec
Fitting ET(->0)                 ...     0.000 sec

Everything after 3-index        ...    51.391 sec

Timing details:
 TNO integrals                  ...    68.922 sec
   Reading 3-index integrals    ...     1.158 sec
   Sorting integrals            ...     8.976 sec
       Sorting integrals 1      ...     0.001 sec
       Sorting integrals 2      ...     2.111 sec
       Sorting integrals 3      ...     0.520 sec
       Sorting integrals 4      ...     0.017 sec
       Sorting integrals 5      ...     0.067 sec
       Sorting integrals 6      ...     6.261 sec
   Calculating local VM**-1/2   ...     0.304 sec
   Orthogonal. integrals        ...     0.781 sec
   Multipl. 3-index integrals   ...    57.703 sec
   All concerning IRIab (w/TNO) ...    11.166 sec

 Calculate W0/W1                ...    18.623 sec
 W 3-ext contribution           ...    11.584 sec
 W 3-int contribution           ...     2.314 sec
 Sorting W                      ...     4.306 sec

 V exchange contribution        ...     2.574 sec

 Timings for Triples without generation
     of 3-index integrals       ...    51.389 sec
       0 weak pairs             ...    51.389 sec
       1 weak pair              ...     0.000 sec
       2 weak pairs             ...     0.000 sec
       3 weak pairs             ...     0.000 sec
  Extra time for extrapolation  ...     0.000 sec

Number of Triples   (0, 1, 2, 3 weak pairs; overall):   1122       0       0       0  (  1122)
Number of Atoms     (0, 1, 2, 3 weak pairs; overall):    9.0     0.0     0.0     0.0  (     9)
Number of PAOs      (0, 1, 2, 3 weak pairs; overall):  228.9     0.0     0.0     0.0  (   229)
Number of AuxFcns   (0, 1, 2, 3 weak pairs; overall):  368.2     0.0     0.0     0.0  (   562)
Number of TNOs      (0, 1, 2, 3 weak pairs         ):  103.6     0.0     0.0     0.0
Aver. Number of NTNO, Atoms, PAOs, AuxFcns / Triples:   1122   103.6     9.0   228.9   368.2

Triples Correction (T)                     ...     -0.061474811
Final correlation energy                   ...     -1.355845312
E(CCSD)                                    ...   -378.649501263
E(CCSD(T))                                 ...   -378.710976074



------------------------------------------------------------------------------- 
                                     TIMINGS                                   
------------------------------------------------------------------------------- 


Total execution time                   ...      353.978 sec

Localization of occupied MO's          ...        0.340 sec (  0.1%)
Fock Matrix Formation                  ...        1.538 sec (  0.4%)
Global overlap, Fock, MKN matrices     ...        0.214 sec (  0.1%)
Differential overlap integrals         ...        0.305 sec (  0.1%)
Organizing maps                        ...        0.017 sec (  0.0%)
RI 3-index integral generations        ...        1.110 sec (  0.3%)
RI-PNO integral transformation         ...       62.905 sec ( 17.8%)
Initial Guess                          ...       11.954 sec (  3.4%)
DIIS Solver                            ...        2.012 sec (  0.6%)
State Vector Update                    ...        0.029 sec (  0.0%)
Sigma-vector construction              ...      167.516 sec ( 47.3%)
  <D|H|D>(0-ext)                       ...        4.462 sec (  2.7% of sigma)
  <D|H|D>(2-ext Fock)                  ...        0.022 sec (  0.0% of sigma)
  <D|H|D>(2-ext)                       ...       11.739 sec (  7.0% of sigma)
  <D|H|D>(4-ext)                       ...       53.383 sec ( 31.9% of sigma)
  <D|H|D>(4-ext-corr)                  ...       69.967 sec ( 41.8% of sigma)
  CCSD doubles correction              ...        0.309 sec (  0.2% of sigma)
  <S|H|S>                              ...        0.571 sec (  0.3% of sigma)
  <S|H|D>(1-ext)                       ...        0.417 sec (  0.2% of sigma)
  <D|H|S>(1-ext)                       ...        0.011 sec (  0.0% of sigma)
  <S|H|D>(3-ext)                       ...        0.447 sec (  0.3% of sigma)
  Fock-dressing                        ...       14.375 sec (  8.6% of sigma)
  Singles amplitudes                   ...        0.525 sec (  0.3% of sigma)
  (ik|jl)-dressing                     ...        3.275 sec (  2.0% of sigma)
  (ij|ab),(ia|jb)-dressing             ...        4.040 sec (  2.4% of sigma)
  Pair energies                        ...        0.008 sec (  0.0% of sigma)
  Shift terms                          ...        0.001 sec (  0.0% of sigma)
Total Time for computing (T)           ...      107.091 sec ( 30.3% of ALL)


Maximum memory used throughout the entire MDCI-calculation: 514.3 MB

-------------------------   --------------------
FINAL SINGLE POINT ENERGY      -378.710976073675
-------------------------   --------------------


                            ***************************************
                            *     ORCA property calculations      *
                            ***************************************


  WARNING: The energy has been calculated at the MDCI level but the densities
           used in the property calculations are still SCF densities
           MDCI response densities have not been calculated 
           use %mdci Density linearized end
           or  %mdci Density unrelaxed end
           or  %mdci Density orbopt end

                                    ---------------------
                                    Active property flags
                                    ---------------------
   (+) Dipole Moment


------------------------------------------------------------------------------
                       ORCA ELECTRIC PROPERTIES CALCULATION
------------------------------------------------------------------------------

Dipole Moment Calculation                       ... on
Quadrupole Moment Calculation                   ... off
Polarizability Calculation                      ... off
GBWName                                         ... frag2.gbw
Electron density file                           ... frag2.scfp
The origin for moment calculation is the CENTER OF MASS  = (-1.334866, -2.955831 -0.623980)

-------------
DIPOLE MOMENT
-------------
                                X             Y             Z
Electronic contribution:     -2.01206      -0.08627      -0.22121
Nuclear contribution   :      3.91145       0.46341       0.47815
                        -----------------------------------------
Total Dipole Moment    :      1.89939       0.37715       0.25694
                        -----------------------------------------
Magnitude (a.u.)       :      1.95345
Magnitude (Debye)      :      4.96526



--------------------
Rotational spectrum 
--------------------
 
Rotational constants in cm-1:     0.224341     0.080183     0.059328 
Rotational constants in MHz :  6725.566835  2403.827800  1778.596662 

 Dipole components along the rotational axes: 
x,y,z [a.u.] :    -0.000128     1.949484    -0.124336 
x,y,z [Debye]:    -0.000324     4.955195    -0.316038 

 

Timings for individual modules:

Sum of individual times         ...      367.631 sec (=   6.127 min)
GTO integral calculation        ...        0.557 sec (=   0.009 min)   0.2 %
SCF iterations                  ...       12.828 sec (=   0.214 min)   3.5 %
MDCI module                     ...      354.245 sec (=   5.904 min)  96.4 %
                             ****ORCA TERMINATED NORMALLY****
TOTAL RUN TIME: 0 days 0 hours 6 minutes 7 seconds 924 msec
